DF-ISE text

Info {
  version   = 1.0
  type      = xyplot
  datasets  = [
    "time"
    "source OuterVoltage" "source InnerVoltage" "source QuasiFermiPotential" "source DisplacementCurrent" "source eCurrent"
    "source hCurrent" "source TotalCurrent" "source Charge" "topGate OuterVoltage" "topGate InnerVoltage"
    "topGate QuasiFermiPotential" "topGate DisplacementCurrent" "topGate eCurrent" "topGate hCurrent" "topGate TotalCurrent"
    "topGate Charge" "drain OuterVoltage" "drain InnerVoltage" "drain QuasiFermiPotential" "drain DisplacementCurrent"
    "drain eCurrent" "drain hCurrent" "drain TotalCurrent" "drain Charge" "bottomGate OuterVoltage"
    "bottomGate InnerVoltage" "bottomGate QuasiFermiPotential" "bottomGate DisplacementCurrent" "bottomGate eCurrent" "bottomGate hCurrent"
    "bottomGate TotalCurrent" "bottomGate Charge" ]
  functions = [
    Time
    OuterVoltage InnerVoltage QuasiFermiPotential DisplacementCurrent eCurrent
    hCurrent TotalCurrent Charge OuterVoltage InnerVoltage
    QuasiFermiPotential DisplacementCurrent eCurrent hCurrent TotalCurrent
    Charge OuterVoltage InnerVoltage QuasiFermiPotential DisplacementCurrent
    eCurrent hCurrent TotalCurrent Charge OuterVoltage
    InnerVoltage QuasiFermiPotential DisplacementCurrent eCurrent hCurrent
    TotalCurrent Charge ]
}

Data {
      1.50000000000000E-02
      0.00000000000000E+00   0.00000000000000E+00   0.00000000000000E+00   0.00000000000000E+00  -1.24531625776416E-13
     -4.74073170550943E-10  -4.74197702176719E-10  -9.54783377481462E-18  -3.85000000000000E-03  -3.85000000000000E-03
      0.00000000000000E+00   0.00000000000000E+00   0.00000000000000E+00   0.00000000000000E+00   0.00000000000000E+00
     -6.50137711968038E-18   4.00000000000000E-01   4.00000000000000E-01   0.00000000000000E+00   0.00000000000000E+00
      4.74234249820007E-10  -3.65476432880870E-14   4.74197702176719E-10   2.04467665636840E-17   0.00000000000000E+00
      0.00000000000000E+00   0.00000000000000E+00   0.00000000000000E+00   0.00000000000000E+00   0.00000000000000E+00
      0.00000000000000E+00  -4.39755566918902E-18
      3.00000000000000E-02
      0.00000000000000E+00   0.00000000000000E+00   0.00000000000000E+00   0.00000000000000E+00  -1.26205757293640E-13
     -4.50369029496334E-10  -4.50495235253627E-10  -9.61807109791678E-18   2.30000000000000E-03   2.30000000000000E-03
      0.00000000000000E+00   0.00000000000000E+00   0.00000000000000E+00   0.00000000000000E+00   0.00000000000000E+00
     -4.75315523918298E-18   4.00000000000000E-01   4.00000000000000E-01   0.00000000000000E+00   0.00000000000000E+00
      4.50527527642147E-10  -3.22923885188353E-14   4.50495235253628E-10   2.03812099556878E-17   0.00000000000000E+00
      0.00000000000000E+00   0.00000000000000E+00   0.00000000000000E+00   0.00000000000000E+00   0.00000000000000E+00
      0.00000000000000E+00  -6.00998361858808E-18
      4.50000000000000E-02
      0.00000000000000E+00   0.00000000000000E+00   0.00000000000000E+00   0.00000000000000E+00  -1.27889731375952E-13
     -4.28314733608742E-10  -4.28442623340118E-10  -9.68816328624687E-18   8.45000000000000E-03   8.45000000000000E-03
      0.00000000000000E+00   0.00000000000000E+00   0.00000000000000E+00   0.00000000000000E+00   0.00000000000000E+00
     -3.00500621397359E-18   4.00000000000000E-01   4.00000000000000E-01   0.00000000000000E+00   0.00000000000000E+00
      4.28471030740432E-10  -2.84074003139787E-14   4.28442623340118E-10   2.03156538265085E-17   0.00000000000000E+00
      0.00000000000000E+00   0.00000000000000E+00   0.00000000000000E+00   0.00000000000000E+00   0.00000000000000E+00
      0.00000000000000E+00  -7.62248432628803E-18
      6.00000000000000E-02
      0.00000000000000E+00   0.00000000000000E+00   0.00000000000000E+00   0.00000000000000E+00  -1.29583420093241E-13
     -4.07809564262877E-10  -4.07939147682971E-10  -9.75811523138687E-18   1.46000000000000E-02   1.46000000000000E-02
      0.00000000000000E+00   0.00000000000000E+00   0.00000000000000E+00   0.00000000000000E+00   0.00000000000000E+00
     -1.25692742064110E-18   4.00000000000000E-01   4.00000000000000E-01   0.00000000000000E+00   0.00000000000000E+00
      4.07964011306244E-10  -2.48636232734775E-14   4.07939147682971E-10   2.02500978360335E-17   0.00000000000000E+00
      0.00000000000000E+00   0.00000000000000E+00   0.00000000000000E+00   0.00000000000000E+00   0.00000000000000E+00
      0.00000000000000E+00  -9.23505518400550E-18
      7.50000000000000E-02
      0.00000000000000E+00   0.00000000000000E+00   0.00000000000000E+00   0.00000000000000E+00  -1.31286694996591E-13
     -3.88758739234890E-10  -3.88890025929886E-10  -9.82793165072307E-18   2.07500000000000E-02   2.07500000000000E-02
      0.00000000000000E+00   0.00000000000000E+00   0.00000000000000E+00   0.00000000000000E+00   0.00000000000000E+00
      4.91083659981065E-19   4.00000000000000E-01   4.00000000000000E-01   0.00000000000000E+00   0.00000000000000E+00
      3.88911659961506E-10  -2.16340316194645E-14   3.88890025929887E-10   2.01845416763018E-17   0.00000000000000E+00
      0.00000000000000E+00   0.00000000000000E+00   0.00000000000000E+00   0.00000000000000E+00   0.00000000000000E+00
      0.00000000000000E+00  -1.08476936855598E-17
      9.00000000000000E-02
      0.00000000000000E+00   0.00000000000000E+00   0.00000000000000E+00   0.00000000000000E+00  -1.32999427277548E-13
     -3.71073137634097E-10  -3.71206137061375E-10  -9.89761709357712E-18   2.69000000000000E-02   2.69000000000000E-02
      0.00000000000000E+00   0.00000000000000E+00   0.00000000000000E+00   0.00000000000000E+00   0.00000000000000E+00
      2.23902944789573E-18   4.00000000000000E-01   4.00000000000000E-01   0.00000000000000E+00   0.00000000000000E+00
      3.71224830568579E-10  -1.86935072038236E-14   3.71206137061375E-10   2.01189850677633E-17   0.00000000000000E+00
      0.00000000000000E+00   0.00000000000000E+00   0.00000000000000E+00   0.00000000000000E+00   0.00000000000000E+00
      0.00000000000000E+00  -1.24603974220819E-17
      1.05000000000000E-01
      0.00000000000000E+00   0.00000000000000E+00   0.00000000000000E+00   0.00000000000000E+00  -1.34721487915435E-13
     -3.54669032480939E-10  -3.54803753968854E-10  -9.96717594714594E-18   3.30500000000000E-02   3.30500000000000E-02
      0.00000000000000E+00   0.00000000000000E+00   0.00000000000000E+00   0.00000000000000E+00   0.00000000000000E+00
      3.98691226869645E-18   4.00000000000000E-01   4.00000000000000E-01   0.00000000000000E+00   0.00000000000000E+00
      3.54819772694192E-10  -1.60187253384972E-14   3.54803753968854E-10   2.00534277559604E-17   0.00000000000000E+00
      0.00000000000000E+00   0.00000000000000E+00   0.00000000000000E+00   0.00000000000000E+00   0.00000000000000E+00
      0.00000000000000E+00  -1.40731640775110E-17
      1.20000000000000E-01
      0.00000000000000E+00   0.00000000000000E+00   0.00000000000000E+00   0.00000000000000E+00  -1.36452747813719E-13
     -3.39467831117959E-10  -3.39604283865773E-10  -1.00366124422538E-17   3.92000000000000E-02   3.92000000000000E-02
      0.00000000000000E+00   0.00000000000000E+00   0.00000000000000E+00   0.00000000000000E+00   0.00000000000000E+00
      5.73473435802435E-18   4.00000000000000E-01   4.00000000000000E-01   0.00000000000000E+00   0.00000000000000E+00
      3.39617871909281E-10  -1.35880435077576E-14   3.39604283865773E-10   1.99878695085857E-17   0.00000000000000E+00
      0.00000000000000E+00   0.00000000000000E+00   0.00000000000000E+00   0.00000000000000E+00   0.00000000000000E+00
      0.00000000000000E+00  -1.56859914243562E-17
      1.35000000000000E-01
      0.00000000000000E+00   0.00000000000000E+00   0.00000000000000E+00   0.00000000000000E+00  -1.38193077926413E-13
     -3.25395823622514E-10  -3.25534016700440E-10  -1.01059306589210E-17   4.53500000000000E-02   4.53500000000000E-02
      0.00000000000000E+00   0.00000000000000E+00   0.00000000000000E+00   0.00000000000000E+00   0.00000000000000E+00
      7.48249786575296E-18   4.00000000000000E-01   4.00000000000000E-01   0.00000000000000E+00   0.00000000000000E+00
      3.25545398095999E-10  -1.13813955589278E-14   3.25534016700440E-10   1.99223101128693E-17   0.00000000000000E+00
      0.00000000000000E+00   0.00000000000000E+00   0.00000000000000E+00   0.00000000000000E+00   0.00000000000000E+00
      0.00000000000000E+00  -1.72988773197012E-17
      1.50000000000000E-01
      0.00000000000000E+00   0.00000000000000E+00   0.00000000000000E+00   0.00000000000000E+00  -1.39942349375465E-13
     -3.12383939379519E-10  -3.12523881728894E-10  -1.01751345317517E-17   5.15000000000000E-02   5.15000000000000E-02
      0.00000000000000E+00   0.00000000000000E+00   0.00000000000000E+00   0.00000000000000E+00   0.00000000000000E+00
      9.23020485992424E-18   4.00000000000000E-01   4.00000000000000E-01   0.00000000000000E+00   0.00000000000000E+00
      3.12533261922830E-10  -9.38019393527429E-15   3.12523881728895E-10   1.98567493732593E-17   0.00000000000000E+00
      0.00000000000000E+00   0.00000000000000E+00   0.00000000000000E+00   0.00000000000000E+00   0.00000000000000E+00
      0.00000000000000E+00  -1.89118197014318E-17
      1.65000000000000E-01
      0.00000000000000E+00   0.00000000000000E+00   0.00000000000000E+00   0.00000000000000E+00  -1.41700433560043E-13
     -3.00367511970455E-10  -3.00509212404015E-10  -1.02442278551461E-17   5.76500000000000E-02   5.76500000000000E-02
      0.00000000000000E+00   0.00000000000000E+00   0.00000000000000E+00   0.00000000000000E+00   0.00000000000000E+00
      1.09778573304559E-17   4.00000000000000E-01   4.00000000000000E-01   0.00000000000000E+00   0.00000000000000E+00
      3.00516779638636E-10  -7.56723462145318E-15   3.00509212404015E-10   1.97911871093618E-17   0.00000000000000E+00
      0.00000000000000E+00   0.00000000000000E+00   0.00000000000000E+00   0.00000000000000E+00   0.00000000000000E+00
      0.00000000000000E+00  -2.05248165846716E-17
      1.80000000000000E-01
      0.00000000000000E+00   0.00000000000000E+00   0.00000000000000E+00   0.00000000000000E+00  -1.43467202258610E-13
     -2.89286052516920E-10  -2.89429519719179E-10  -1.03132142883406E-17   6.38000000000000E-02   6.38000000000000E-02
      0.00000000000000E+00   0.00000000000000E+00   0.00000000000000E+00   0.00000000000000E+00   0.00000000000000E+00
      1.27254571926389E-17   4.00000000000000E-01   4.00000000000000E-01   0.00000000000000E+00   0.00000000000000E+00
      2.89435446326865E-10  -5.92660768559132E-15   2.89429519719179E-10   1.97256231541094E-17   0.00000000000000E+00
      0.00000000000000E+00   0.00000000000000E+00   0.00000000000000E+00   0.00000000000000E+00   0.00000000000000E+00
      0.00000000000000E+00  -2.21378660584077E-17
      1.95000000000000E-01
      0.00000000000000E+00   0.00000000000000E+00   0.00000000000000E+00   0.00000000000000E+00  -1.45242527724621E-13
     -2.79083031611720E-10  -2.79228274139445E-10  -1.03820973602795E-17   6.99500000000000E-02   6.99500000000000E-02
      0.00000000000000E+00   0.00000000000000E+00   0.00000000000000E+00   0.00000000000000E+00   0.00000000000000E+00
      1.44730062904409E-17   4.00000000000000E-01   4.00000000000000E-01   0.00000000000000E+00   0.00000000000000E+00
      2.79232717751961E-10  -4.44361251623634E-15   2.79228274139445E-10   1.96600573521324E-17   0.00000000000000E+00
      0.00000000000000E+00   0.00000000000000E+00   0.00000000000000E+00   0.00000000000000E+00   0.00000000000000E+00
      0.00000000000000E+00  -2.37509662822938E-17
      2.10000000000000E-01
      0.00000000000000E+00   0.00000000000000E+00   0.00000000000000E+00   0.00000000000000E+00  -1.47026282776634E-13
     -2.69705669960395E-10  -2.69852696243171E-10  -1.04508804743234E-17   7.61000000000000E-02   7.61000000000000E-02
      0.00000000000000E+00   0.00000000000000E+00   0.00000000000000E+00   0.00000000000000E+00   0.00000000000000E+00
      1.62205063996316E-17   4.00000000000000E-01   4.00000000000000E-01   0.00000000000000E+00   0.00000000000000E+00
      2.69855800921440E-10  -3.10467826845517E-15   2.69852696243171E-10   1.95944895583096E-17   0.00000000000000E+00
      0.00000000000000E+00   0.00000000000000E+00   0.00000000000000E+00   0.00000000000000E+00   0.00000000000000E+00
      0.00000000000000E+00  -2.53641154836179E-17
      2.25000000000000E-01
      0.00000000000000E+00   0.00000000000000E+00   0.00000000000000E+00   0.00000000000000E+00  -1.48818340883579E-13
     -2.61104737850426E-10  -2.61253556191309E-10  -1.05195669127977E-17   8.22500000000000E-02   8.22500000000000E-02
      0.00000000000000E+00   0.00000000000000E+00   0.00000000000000E+00   0.00000000000000E+00   0.00000000000000E+00
      1.79679592307421E-17   4.00000000000000E-01   4.00000000000000E-01   0.00000000000000E+00   0.00000000000000E+00
      2.61255453479049E-10  -1.89728773911165E-15   2.61253556191310E-10   1.95289196364782E-17   0.00000000000000E+00
      0.00000000000000E+00   0.00000000000000E+00   0.00000000000000E+00   0.00000000000000E+00   0.00000000000000E+00
      0.00000000000000E+00  -2.69773119544225E-17
      2.40000000000000E-01
      0.00000000000000E+00   0.00000000000000E+00   0.00000000000000E+00   0.00000000000000E+00  -1.50618576245809E-13
     -2.53234363555361E-10  -2.53384982131607E-10  -1.05881598413857E-17   8.84000000000000E-02   8.84000000000000E-02
      0.00000000000000E+00   0.00000000000000E+00   0.00000000000000E+00   0.00000000000000E+00   0.00000000000000E+00
      1.97153664318710E-17   4.00000000000000E-01   4.00000000000000E-01   0.00000000000000E+00   0.00000000000000E+00
      2.53385792037069E-10  -8.09905461876847E-16   2.53384982131607E-10   1.94633474582827E-17   0.00000000000000E+00
      0.00000000000000E+00   0.00000000000000E+00   0.00000000000000E+00   0.00000000000000E+00   0.00000000000000E+00
      0.00000000000000E+00  -2.85905540487680E-17
      2.55000000000000E-01
      0.00000000000000E+00   0.00000000000000E+00   0.00000000000000E+00   0.00000000000000E+00  -1.52426863872537E-13
     -2.46051850774159E-10  -2.46204277638031E-10  -1.06566623133703E-17   9.45500000000001E-02   9.45500000000001E-02
      0.00000000000000E+00   0.00000000000000E+00   0.00000000000000E+00   0.00000000000000E+00   0.00000000000000E+00
      2.14627295913485E-17   4.00000000000000E-01   4.00000000000000E-01   0.00000000000000E+00   0.00000000000000E+00
      2.46204109549061E-10   1.68088970048306E-16   2.46204277638032E-10   1.93977729021503E-17   0.00000000000000E+00
      0.00000000000000E+00   0.00000000000000E+00   0.00000000000000E+00   0.00000000000000E+00   0.00000000000000E+00
      0.00000000000000E+00  -3.02038401801285E-17
      2.70000000000000E-01
      0.00000000000000E+00   0.00000000000000E+00   0.00000000000000E+00   0.00000000000000E+00  -1.54243079656105E-13
     -2.39517505203612E-10  -2.39671748283268E-10  -1.07250772737293E-17   1.00700000000000E-01   1.00700000000000E-01
      0.00000000000000E+00   0.00000000000000E+00   0.00000000000000E+00   0.00000000000000E+00   0.00000000000000E+00
      2.32100502402671E-17   4.00000000000000E-01   4.00000000000000E-01   0.00000000000000E+00   0.00000000000000E+00
      2.39670701818237E-10   1.04646503099803E-15   2.39671748283268E-10   1.93321958523744E-17   0.00000000000000E+00
      0.00000000000000E+00   0.00000000000000E+00   0.00000000000000E+00   0.00000000000000E+00   0.00000000000000E+00
      0.00000000000000E+00  -3.18171688189122E-17
      2.85000000000000E-01
      0.00000000000000E+00   0.00000000000000E+00   0.00000000000000E+00   0.00000000000000E+00  -1.56067100443470E-13
     -2.33594470331953E-10  -2.33750537432396E-10  -1.07934075630871E-17   1.06850000000000E-01   1.06850000000000E-01
      0.00000000000000E+00   0.00000000000000E+00   0.00000000000000E+00   0.00000000000000E+00   0.00000000000000E+00
      2.49573298548895E-17   4.00000000000000E-01   4.00000000000000E-01   0.00000000000000E+00   0.00000000000000E+00
      2.33748703231155E-10   1.83420124163965E-15   2.33750537432396E-10   1.92666161982967E-17   0.00000000000000E+00
      0.00000000000000E+00   0.00000000000000E+00   0.00000000000000E+00   0.00000000000000E+00   0.00000000000000E+00
      0.00000000000000E+00  -3.34305384900991E-17
      3.00000000000000E-01
      0.00000000000000E+00   0.00000000000000E+00   0.00000000000000E+00   0.00000000000000E+00  -1.57898804105164E-13
     -2.28248572538826E-10  -2.28406471342931E-10  -1.08616559215279E-17   1.13000000000000E-01   1.13000000000000E-01
      0.00000000000000E+00   0.00000000000000E+00   0.00000000000000E+00   0.00000000000000E+00   0.00000000000000E+00
      2.67045698589401E-17   4.00000000000000E-01   4.00000000000000E-01   0.00000000000000E+00   0.00000000000000E+00
      2.28403931801583E-10   2.53954134799980E-15   2.28406471342931E-10   1.92010338335749E-17   0.00000000000000E+00
      0.00000000000000E+00   0.00000000000000E+00   0.00000000000000E+00   0.00000000000000E+00   0.00000000000000E+00
      0.00000000000000E+00  -3.50439477709871E-17
      3.15000000000000E-01
      0.00000000000000E+00   0.00000000000000E+00   0.00000000000000E+00   0.00000000000000E+00  -1.59738069601884E-13
     -2.23448175582913E-10  -2.23607913652514E-10  -1.09298249922750E-17   1.19150000000000E-01   1.19150000000000E-01
      0.00000000000000E+00   0.00000000000000E+00   0.00000000000000E+00   0.00000000000000E+00   0.00000000000000E+00
      2.84517716257890E-17   4.00000000000000E-01   4.00000000000000E-01   0.00000000000000E+00   0.00000000000000E+00
      2.23604743605036E-10   3.17004747879051E-15   2.23607913652514E-10   1.91354486555273E-17   0.00000000000000E+00
      0.00000000000000E+00   0.00000000000000E+00   0.00000000000000E+00   0.00000000000000E+00   0.00000000000000E+00
      0.00000000000000E+00  -3.66573952890414E-17
      3.30000000000000E-01
      0.00000000000000E+00   0.00000000000000E+00   0.00000000000000E+00   0.00000000000000E+00  -1.61584777048747E-13
     -2.19164044553629E-10  -2.19325629330677E-10  -1.09979173252379E-17   1.25300000000000E-01   1.25300000000000E-01
      0.00000000000000E+00   0.00000000000000E+00   0.00000000000000E+00   0.00000000000000E+00   0.00000000000000E+00
      3.01989364805343E-17   4.00000000000000E-01   4.00000000000000E-01   0.00000000000000E+00   0.00000000000000E+00
      2.19321896680759E-10   3.73264991831416E-15   2.19325629330678E-10   1.90698605645441E-17   0.00000000000000E+00
      0.00000000000000E+00   0.00000000000000E+00   0.00000000000000E+00   0.00000000000000E+00   0.00000000000000E+00
      0.00000000000000E+00  -3.82708797198405E-17
      3.45000000000000E-01
      0.00000000000000E+00   0.00000000000000E+00   0.00000000000000E+00   0.00000000000000E+00  -1.63438807777168E-13
     -2.15369219360775E-10  -2.15532658168552E-10  -1.10659353804345E-17   1.31450000000000E-01   1.31450000000000E-01
      0.00000000000000E+00   0.00000000000000E+00   0.00000000000000E+00   0.00000000000000E+00   0.00000000000000E+00
      3.19460657019896E-17   4.00000000000000E-01   4.00000000000000E-01   0.00000000000000E+00   0.00000000000000E+00
      2.15528424474657E-10   4.23369389540212E-15   2.15532658168552E-10   1.90042694635590E-17   0.00000000000000E+00
      0.00000000000000E+00   0.00000000000000E+00   0.00000000000000E+00   0.00000000000000E+00   0.00000000000000E+00
      0.00000000000000E+00  -3.98843997851141E-17
      3.60000000000000E-01
      0.00000000000000E+00   0.00000000000000E+00   0.00000000000000E+00   0.00000000000000E+00  -1.65300044394202E-13
     -2.12038897832715E-10  -2.12204197877109E-10  -1.11338815312897E-17   1.37600000000000E-01   1.37600000000000E-01
      0.00000000000000E+00   0.00000000000000E+00   0.00000000000000E+00   0.00000000000000E+00   0.00000000000000E+00
      3.36931605245814E-17   4.00000000000000E-01   4.00000000000000E-01   0.00000000000000E+00   0.00000000000000E+00
      2.12199518893869E-10   4.67898324019783E-15   2.12204197877109E-10   1.89386752575738E-17   0.00000000000000E+00
      0.00000000000000E+00   0.00000000000000E+00   0.00000000000000E+00   0.00000000000000E+00   0.00000000000000E+00
      0.00000000000000E+00  -4.14979542508654E-17
      3.75000000000000E-01
      0.00000000000000E+00   0.00000000000000E+00   0.00000000000000E+00   0.00000000000000E+00  -1.67168370839130E-13
     -2.09150328492110E-10  -2.09317496862949E-10  -1.12017580678154E-17   1.43750000000000E-01   1.43750000000000E-01
      0.00000000000000E+00   0.00000000000000E+00   0.00000000000000E+00   0.00000000000000E+00   0.00000000000000E+00
      3.54402221401627E-17   4.00000000000000E-01   4.00000000000000E-01   0.00000000000000E+00   0.00000000000000E+00
      2.09312423041336E-10   5.07382161271511E-15   2.09317496862949E-10   1.88730778532296E-17   0.00000000000000E+00
      0.00000000000000E+00   0.00000000000000E+00   0.00000000000000E+00   0.00000000000000E+00   0.00000000000000E+00
      0.00000000000000E+00  -4.31115419255768E-17
      3.90000000000000E-01
      0.00000000000000E+00   0.00000000000000E+00   0.00000000000000E+00   0.00000000000000E+00  -1.69043672437003E-13
     -2.06682713074961E-10  -2.06851756747398E-10  -1.12695671996750E-17   1.49900000000000E-01   1.49900000000000E-01
      0.00000000000000E+00   0.00000000000000E+00   0.00000000000000E+00   0.00000000000000E+00   0.00000000000000E+00
      3.71872516997471E-17   4.00000000000000E-01   4.00000000000000E-01   0.00000000000000E+00   0.00000000000000E+00
      2.06846333696682E-10   5.42305071571558E-15   2.06851756747398E-10   1.88074771584186E-17   0.00000000000000E+00
      0.00000000000000E+00   0.00000000000000E+00   0.00000000000000E+00   0.00000000000000E+00   0.00000000000000E+00
      0.00000000000000E+00  -4.47251616584906E-17
      4.05000000000000E-01
      0.00000000000000E+00   0.00000000000000E+00   0.00000000000000E+00   0.00000000000000E+00  -1.70925835948801E-13
     -2.04617118858424E-10  -2.04788044694372E-10  -1.13373110591379E-17   1.56050000000000E-01   1.56050000000000E-01
      0.00000000000000E+00   0.00000000000000E+00   0.00000000000000E+00   0.00000000000000E+00   0.00000000000000E+00
      3.89342503151678E-17   4.00000000000000E-01   4.00000000000000E-01   0.00000000000000E+00   0.00000000000000E+00
      2.04782313608120E-10   5.73108625184582E-15   2.04788044694372E-10   1.87418730819336E-17   0.00000000000000E+00
      0.00000000000000E+00   0.00000000000000E+00   0.00000000000000E+00   0.00000000000000E+00   0.00000000000000E+00
      0.00000000000000E+00  -4.63388123379635E-17
      4.20000000000000E-01
      0.00000000000000E+00   0.00000000000000E+00   0.00000000000000E+00   0.00000000000000E+00  -1.72814749617845E-13
     -2.02936400860534E-10  -2.03109215610152E-10  -1.14049917039243E-17   1.62200000000000E-01   1.62200000000000E-01
      0.00000000000000E+00   0.00000000000000E+00   0.00000000000000E+00   0.00000000000000E+00   0.00000000000000E+00
      4.06812190606654E-17   4.00000000000000E-01   4.00000000000000E-01   0.00000000000000E+00   0.00000000000000E+00
      2.03103213658785E-10   6.00195136757879E-15   2.03109215610152E-10   1.86762655331489E-17   0.00000000000000E+00
      0.00000000000000E+00   0.00000000000000E+00   0.00000000000000E+00   0.00000000000000E+00   0.00000000000000E+00
      0.00000000000000E+00  -4.79524928898900E-17
      4.35000000000000E-01
      0.00000000000000E+00   0.00000000000000E+00   0.00000000000000E+00   0.00000000000000E+00  -1.74710303212111E-13
     -2.01625133974532E-10  -2.01799844277744E-10  -1.14726111199480E-17   1.68350000000000E-01   1.68350000000000E-01
      0.00000000000000E+00   0.00000000000000E+00   0.00000000000000E+00   0.00000000000000E+00   0.00000000000000E+00
      4.24281589744090E-17   4.00000000000000E-01   4.00000000000000E-01   0.00000000000000E+00   0.00000000000000E+00
      2.01793604969851E-10   6.23930789270502E-15   2.01799844277744E-10   1.86106544217302E-17   0.00000000000000E+00
      0.00000000000000E+00   0.00000000000000E+00   0.00000000000000E+00   0.00000000000000E+00   0.00000000000000E+00
      0.00000000000000E+00  -4.95662022761911E-17
      4.50000000000000E-01
      0.00000000000000E+00   0.00000000000000E+00   0.00000000000000E+00   0.00000000000000E+00  -1.76612388062052E-13
     -2.00669555099491E-10  -2.00846167487553E-10  -1.15401712239571E-17   1.74500000000000E-01   1.74500000000000E-01
      0.00000000000000E+00   0.00000000000000E+00   0.00000000000000E+00   0.00000000000000E+00   0.00000000000000E+00
      4.41750710599536E-17   4.00000000000000E-01   4.00000000000000E-01   0.00000000000000E+00   0.00000000000000E+00
      2.00839721002100E-10   6.44648545321857E-15   2.00846167487553E-10   1.85450396573686E-17   0.00000000000000E+00
      0.00000000000000E+00   0.00000000000000E+00   0.00000000000000E+00   0.00000000000000E+00   0.00000000000000E+00
      0.00000000000000E+00  -5.11799394933651E-17
      4.65000000000000E-01
      0.00000000000000E+00   0.00000000000000E+00   0.00000000000000E+00   0.00000000000000E+00  -1.78520897093610E-13
     -2.00057515328490E-10  -2.00236036225583E-10  -1.16076738660778E-17   1.80650000000000E-01   1.80650000000000E-01
      0.00000000000000E+00   0.00000000000000E+00   0.00000000000000E+00   0.00000000000000E+00   0.00000000000000E+00
      4.59219562876373E-17   4.00000000000000E-01   4.00000000000000E-01   0.00000000000000E+00   0.00000000000000E+00
      2.00229409717120E-10   6.62650846271061E-15   2.00236036225583E-10   1.84794211495380E-17   0.00000000000000E+00
      0.00000000000000E+00   0.00000000000000E+00   0.00000000000000E+00   0.00000000000000E+00   0.00000000000000E+00
      0.00000000000000E+00  -5.27937035710976E-17
      4.80000000000000E-01
      0.00000000000000E+00   0.00000000000000E+00   0.00000000000000E+00   0.00000000000000E+00  -1.80435724856141E-13
     -1.99778442255716E-10  -1.99958877980572E-10  -1.16751208322646E-17   1.86800000000000E-01   1.86800000000000E-01
      0.00000000000000E+00   0.00000000000000E+00   0.00000000000000E+00   0.00000000000000E+00   0.00000000000000E+00
      4.76688155959207E-17   4.00000000000000E-01   4.00000000000000E-01   0.00000000000000E+00   0.00000000000000E+00
      1.99952095859142E-10   6.78212142936037E-15   1.99958877980572E-10   1.84137988072710E-17   0.00000000000000E+00
      0.00000000000000E+00   0.00000000000000E+00   0.00000000000000E+00   0.00000000000000E+00   0.00000000000000E+00
      0.00000000000000E+00  -5.44074935709271E-17
      4.95000000000000E-01
      0.00000000000000E+00   0.00000000000000E+00   0.00000000000000E+00   0.00000000000000E+00  -1.82356767544985E-13
     -1.99823312463200E-10  -2.00005669230745E-10  -1.17425138466594E-17   1.92950000000000E-01   1.92950000000000E-01
      0.00000000000000E+00   0.00000000000000E+00   0.00000000000000E+00   0.00000000000000E+00   0.00000000000000E+00
      4.94156498926732E-17   4.00000000000000E-01   4.00000000000000E-01   0.00000000000000E+00   0.00000000000000E+00
      1.99998753418590E-10   6.91581215555880E-15   2.00005669230745E-10   1.83481725389516E-17   0.00000000000000E+00
      0.00000000000000E+00   0.00000000000000E+00   0.00000000000000E+00   0.00000000000000E+00   0.00000000000000E+00
      0.00000000000000E+00  -5.60213085849653E-17
      5.10000000000000E-01
      0.00000000000000E+00   0.00000000000000E+00   0.00000000000000E+00   0.00000000000000E+00  -1.84283923018521E-13
     -2.00184634249300E-10  -2.00368918172318E-10  -1.18098545738634E-17   1.99100000000000E-01   1.99100000000000E-01
      0.00000000000000E+00   0.00000000000000E+00   0.00000000000000E+00   0.00000000000000E+00   0.00000000000000E+00
      5.11624600564061E-17   4.00000000000000E-01   4.00000000000000E-01   0.00000000000000E+00   0.00000000000000E+00
      2.00361888338794E-10   7.02983352442197E-15   2.00368918172318E-10   1.82825422521238E-17   0.00000000000000E+00
      0.00000000000000E+00   0.00000000000000E+00   0.00000000000000E+00   0.00000000000000E+00   0.00000000000000E+00
      0.00000000000000E+00  -5.76351477346665E-17
      5.25000000000000E-01
      0.00000000000000E+00   0.00000000000000E+00   0.00000000000000E+00   0.00000000000000E+00  -1.86217090809617E-13
     -2.00856440660711E-10  -2.01042657751520E-10  -1.18771446211237E-17   2.05250000000000E-01   2.05250000000000E-01
      0.00000000000000E+00   0.00000000000000E+00   0.00000000000000E+00   0.00000000000000E+00   0.00000000000000E+00
      5.29092469374583E-17   4.00000000000000E-01   4.00000000000000E-01   0.00000000000000E+00   0.00000000000000E+00
      2.01035531527950E-10   7.12622357065927E-15   2.01042657751521E-10   1.82169078533124E-17   0.00000000000000E+00
      0.00000000000000E+00   0.00000000000000E+00   0.00000000000000E+00   0.00000000000000E+00   0.00000000000000E+00
      0.00000000000000E+00  -5.92490101696470E-17
      5.40000000000000E-01
      0.00000000000000E+00   0.00000000000000E+00   0.00000000000000E+00   0.00000000000000E+00  -1.88156172131483E-13
     -2.01834292891258E-10  -2.02022449063389E-10  -1.19443855404395E-17   2.11400000000000E-01   2.11400000000000E-01
      0.00000000000000E+00   0.00000000000000E+00   0.00000000000000E+00   0.00000000000000E+00   0.00000000000000E+00
      5.46560113591337E-17   4.00000000000000E-01   4.00000000000000E-01   0.00000000000000E+00   0.00000000000000E+00
      2.02015242239385E-10   7.20682400431685E-15   2.02022449063390E-10   1.81512692478551E-17   0.00000000000000E+00
      0.00000000000000E+00   0.00000000000000E+00   0.00000000000000E+00   0.00000000000000E+00   0.00000000000000E+00
      0.00000000000000E+00  -6.08628950665493E-17
      5.55000000000000E-01
      0.00000000000000E+00   0.00000000000000E+00   0.00000000000000E+00   0.00000000000000E+00  -1.90101069877884E-13