DF-ISE text

Info {
  version   = 1.0
  type      = xyplot
  datasets  = [
    "time"
    "source OuterVoltage" "source InnerVoltage" "source QuasiFermiPotential" "source DisplacementCurrent" "source eCurrent"
    "source hCurrent" "source TotalCurrent" "source Charge" "topGate OuterVoltage" "topGate InnerVoltage"
    "topGate QuasiFermiPotential" "topGate DisplacementCurrent" "topGate eCurrent" "topGate hCurrent" "topGate TotalCurrent"
    "topGate Charge" "drain OuterVoltage" "drain InnerVoltage" "drain QuasiFermiPotential" "drain DisplacementCurrent"
    "drain eCurrent" "drain hCurrent" "drain TotalCurrent" "drain Charge" "bottomGate OuterVoltage"
    "bottomGate InnerVoltage" "bottomGate QuasiFermiPotential" "bottomGate DisplacementCurrent" "bottomGate eCurrent" "bottomGate hCurrent"
    "bottomGate TotalCurrent" "bottomGate Charge" ]
  functions = [
    Time
    OuterVoltage InnerVoltage QuasiFermiPotential DisplacementCurrent eCurrent
    hCurrent TotalCurrent Charge OuterVoltage InnerVoltage
    QuasiFermiPotential DisplacementCurrent eCurrent hCurrent TotalCurrent
    Charge OuterVoltage InnerVoltage QuasiFermiPotential DisplacementCurrent
    eCurrent hCurrent TotalCurrent Charge OuterVoltage
    InnerVoltage QuasiFermiPotential DisplacementCurrent eCurrent hCurrent
    TotalCurrent Charge ]
}

Data {
      1.50000000000000E-02
      0.00000000000000E+00   0.00000000000000E+00   0.00000000000000E+00   0.00000000000000E+00  -1.44101469986008E-13
     -5.56418544894062E-11  -5.57859559593922E-11  -1.03378674335398E-17   6.00000000000000E-03   6.00000000000000E-03
      0.00000000000000E+00   0.00000000000000E+00   0.00000000000000E+00   0.00000000000000E+00   0.00000000000000E+00
     -3.04280569200198E-18   4.00000000000000E-01   4.00000000000000E-01   0.00000000000000E+00   0.00000000000000E+00
      5.57766307475031E-11   9.32521188909554E-15   5.57859559593922E-11   1.97021612342771E-17   0.00000000000000E+00
      0.00000000000000E+00   0.00000000000000E+00   0.00000000000000E+00   0.00000000000000E+00   0.00000000000000E+00
      0.00000000000000E+00  -6.32148810873539E-18
      3.00000000000000E-02
      0.00000000000000E+00   0.00000000000000E+00   0.00000000000000E+00   0.00000000000000E+00  -1.45836352946800E-13
     -5.22551562117760E-11  -5.24009925647228E-11  -1.04050363548436E-17   1.20000000000000E-02   1.20000000000000E-02
      0.00000000000000E+00   0.00000000000000E+00   0.00000000000000E+00   0.00000000000000E+00   0.00000000000000E+00
     -1.33789647073897E-18   4.00000000000000E-01   4.00000000000000E-01   0.00000000000000E+00   0.00000000000000E+00
      5.23917138790777E-11   9.27868564507962E-15   5.24009925647228E-11   1.96381941020554E-17   0.00000000000000E+00
      0.00000000000000E+00   0.00000000000000E+00   0.00000000000000E+00   0.00000000000000E+00   0.00000000000000E+00
      0.00000000000000E+00  -7.89526127647289E-18
      4.50000000000000E-02
      0.00000000000000E+00   0.00000000000000E+00   0.00000000000000E+00   0.00000000000000E+00  -1.47579227734060E-13
     -4.89735959533556E-11  -4.91211751810896E-11  -1.04721111886355E-17   1.80000000000000E-02   1.80000000000000E-02
      0.00000000000000E+00   0.00000000000000E+00   0.00000000000000E+00   0.00000000000000E+00   0.00000000000000E+00
      3.66966667318585E-19   4.00000000000000E-01   4.00000000000000E-01   0.00000000000000E+00   0.00000000000000E+00
      4.91119430074697E-11   9.23217361991706E-15   4.91211751810897E-11   1.95742250252493E-17   0.00000000000000E+00
      0.00000000000000E+00   0.00000000000000E+00   0.00000000000000E+00   0.00000000000000E+00   0.00000000000000E+00
      0.00000000000000E+00  -9.46908050393236E-18
      6.00000000000000E-02
      0.00000000000000E+00   0.00000000000000E+00   0.00000000000000E+00   0.00000000000000E+00  -1.49329977429998E-13
     -4.57981197354816E-11  -4.59474497129116E-11  -1.05390949477662E-17   2.40000000000000E-02   2.40000000000000E-02
      0.00000000000000E+00   0.00000000000000E+00   0.00000000000000E+00   0.00000000000000E+00   0.00000000000000E+00
      2.07178529316933E-18   4.00000000000000E-01   4.00000000000000E-01   0.00000000000000E+00   0.00000000000000E+00
      4.59382640313131E-11   9.18568159846875E-15   4.59474497129116E-11   1.95102538783730E-17   0.00000000000000E+00
      0.00000000000000E+00   0.00000000000000E+00   0.00000000000000E+00   0.00000000000000E+00   0.00000000000000E+00
      0.00000000000000E+00  -1.10429442237762E-17
      7.50000000000000E-02
      0.00000000000000E+00   0.00000000000000E+00   0.00000000000000E+00   0.00000000000000E+00  -1.51088485934631E-13
     -4.27346228245583E-11  -4.28857113104929E-11  -1.06059905405943E-17   3.00000000000000E-02   3.00000000000000E-02
      0.00000000000000E+00   0.00000000000000E+00   0.00000000000000E+00   0.00000000000000E+00   0.00000000000000E+00
      3.77656092167886E-18   4.00000000000000E-01   4.00000000000000E-01   0.00000000000000E+00   0.00000000000000E+00
      4.28765721004764E-11   9.13921001645896E-15   4.28857113104929E-11   1.94462805432044E-17   0.00000000000000E+00
      0.00000000000000E+00   0.00000000000000E+00   0.00000000000000E+00   0.00000000000000E+00   0.00000000000000E+00
      0.00000000000000E+00  -1.26168509242890E-17
      9.00000000000000E-02
      0.00000000000000E+00   0.00000000000000E+00   0.00000000000000E+00   0.00000000000000E+00  -1.52854638019920E-13
     -3.97833084568765E-11  -3.99361630948964E-11  -1.06728007747112E-17   3.60000000000000E-02   3.60000000000000E-02
      0.00000000000000E+00   0.00000000000000E+00   0.00000000000000E+00   0.00000000000000E+00   0.00000000000000E+00
      5.48129501409669E-18   4.00000000000000E-01   4.00000000000000E-01   0.00000000000000E+00   0.00000000000000E+00
      3.99270703358017E-11   9.09275909473955E-15   3.99361630948964E-11   1.93823049075410E-17   0.00000000000000E+00
      0.00000000000000E+00   0.00000000000000E+00   0.00000000000000E+00   0.00000000000000E+00   0.00000000000000E+00
      0.00000000000000E+00  -1.41907991469265E-17
      1.05000000000000E-01
      0.00000000000000E+00   0.00000000000000E+00   0.00000000000000E+00   0.00000000000000E+00  -1.54628319381041E-13
     -3.69490938585806E-11  -3.71037221779616E-11  -1.07395283605148E-17   4.20000000000000E-02   4.20000000000000E-02
      0.00000000000000E+00   0.00000000000000E+00   0.00000000000000E+00   0.00000000000000E+00   0.00000000000000E+00
      7.18598898013520E-18   4.00000000000000E-01   4.00000000000000E-01   0.00000000000000E+00   0.00000000000000E+00
      3.70946758488710E-11   9.04632909062527E-15   3.71037221779616E-11   1.93183268646786E-17   0.00000000000000E+00
      0.00000000000000E+00   0.00000000000000E+00   0.00000000000000E+00   0.00000000000000E+00   0.00000000000000E+00
      0.00000000000000E+00  -1.57647874842991E-17
      1.20000000000000E-01
      0.00000000000000E+00   0.00000000000000E+00   0.00000000000000E+00   0.00000000000000E+00  -1.56409416682966E-13
     -3.42338784317210E-11  -3.43902878484040E-11  -1.08061759146822E-17   4.80000000000000E-02   4.80000000000000E-02
      0.00000000000000E+00   0.00000000000000E+00   0.00000000000000E+00   0.00000000000000E+00   0.00000000000000E+00
      8.89064418021908E-18   4.00000000000000E-01   4.00000000000000E-01   0.00000000000000E+00   0.00000000000000E+00
      3.43812879282016E-11   8.99992020236897E-15   3.43902878484039E-11   1.92543463124344E-17   0.00000000000000E+00
      0.00000000000000E+00   0.00000000000000E+00   0.00000000000000E+00   0.00000000000000E+00   0.00000000000000E+00
      0.00000000000000E+00  -1.73388145779713E-17
      1.35000000000000E-01
      0.00000000000000E+00   0.00000000000000E+00   0.00000000000000E+00   0.00000000000000E+00  -1.58197817603795E-13
     -3.16364019588838E-11  -3.17945997764876E-11  -1.08727459635145E-17   5.40000000000000E-02   5.40000000000000E-02
      0.00000000000000E+00   0.00000000000000E+00   0.00000000000000E+00   0.00000000000000E+00   0.00000000000000E+00
      1.05952619275140E-17   4.00000000000000E-01   4.00000000000000E-01   0.00000000000000E+00   0.00000000000000E+00
      3.17856462437572E-11   8.95353273038378E-15   3.17945997764876E-11   1.91903631524781E-17   0.00000000000000E+00
      0.00000000000000E+00   0.00000000000000E+00   0.00000000000000E+00   0.00000000000000E+00   0.00000000000000E+00
      0.00000000000000E+00  -1.89128791164777E-17
      1.50000000000000E-01
      0.00000000000000E+00   0.00000000000000E+00   0.00000000000000E+00   0.00000000000000E+00  -1.59993410874966E-13
     -2.91602109633072E-11  -2.93202043741822E-11  -1.09392409461573E-17   6.00000000000000E-02   6.00000000000000E-02
      0.00000000000000E+00   0.00000000000000E+00   0.00000000000000E+00   0.00000000000000E+00   0.00000000000000E+00
      1.22998434897395E-17   4.00000000000000E-01   4.00000000000000E-01   0.00000000000000E+00   0.00000000000000E+00
      2.93112972071709E-11   8.90716701134867E-15   2.93202043741822E-11   1.91263772899703E-17   0.00000000000000E+00
      0.00000000000000E+00   0.00000000000000E+00   0.00000000000000E+00   0.00000000000000E+00   0.00000000000000E+00
      0.00000000000000E+00  -2.04869798335524E-17
      1.65000000000000E-01
      0.00000000000000E+00   0.00000000000000E+00   0.00000000000000E+00   0.00000000000000E+00  -1.61796086317269E-13
     -2.68042898280773E-11  -2.69660859143946E-11  -1.10056632177282E-17   6.60000000000000E-02   6.60000000000000E-02
      0.00000000000000E+00   0.00000000000000E+00   0.00000000000000E+00   0.00000000000000E+00   0.00000000000000E+00
      1.40043900911540E-17   4.00000000000000E-01   4.00000000000000E-01   0.00000000000000E+00   0.00000000000000E+00
      2.69572250910994E-11   8.86082329512989E-15   2.69660859143946E-11   1.90623886327482E-17   0.00000000000000E+00
      0.00000000000000E+00   0.00000000000000E+00   0.00000000000000E+00   0.00000000000000E+00   0.00000000000000E+00
      0.00000000000000E+00  -2.20611155061740E-17
      1.80000000000000E-01
      0.00000000000000E+00   0.00000000000000E+00   0.00000000000000E+00   0.00000000000000E+00  -1.63605734874353E-13
     -2.45685145582807E-11  -2.47321202931551E-11  -1.10720150523193E-17   7.20000000000000E-02   7.20000000000000E-02
      0.00000000000000E+00   0.00000000000000E+00   0.00000000000000E+00   0.00000000000000E+00   0.00000000000000E+00
      1.57089029142323E-17   4.00000000000000E-01   4.00000000000000E-01   0.00000000000000E+00   0.00000000000000E+00
      2.47233057913224E-11   8.81450183269045E-15   2.47321202931551E-11   1.89983970910063E-17   0.00000000000000E+00
      0.00000000000000E+00   0.00000000000000E+00   0.00000000000000E+00   0.00000000000000E+00   0.00000000000000E+00
      0.00000000000000E+00  -2.36352849529193E-17
      1.95000000000000E-01
      0.00000000000000E+00   0.00000000000000E+00   0.00000000000000E+00   0.00000000000000E+00  -1.65422248642895E-13
     -2.24539412526930E-11  -2.26193635013359E-11  -1.11382986459001E-17   7.80000000000000E-02   7.80000000000000E-02
      0.00000000000000E+00   0.00000000000000E+00   0.00000000000000E+00   0.00000000000000E+00   0.00000000000000E+00
      1.74133831013424E-17   4.00000000000000E-01   4.00000000000000E-01   0.00000000000000E+00   0.00000000000000E+00
      2.26105952983694E-11   8.76820296648605E-15   2.26193635013359E-11   1.89344025768714E-17   0.00000000000000E+00
      0.00000000000000E+00   0.00000000000000E+00   0.00000000000000E+00   0.00000000000000E+00   0.00000000000000E+00
      0.00000000000000E+00  -2.52094870323137E-17
      2.10000000000000E-01
      0.00000000000000E+00   0.00000000000000E+00   0.00000000000000E+00   0.00000000000000E+00  -1.67245520899666E-13
     -2.04600041388253E-11  -2.06272496597249E-11  -1.12045161191213E-17   8.40000000000000E-02   8.40000000000000E-02
      0.00000000000000E+00   0.00000000000000E+00   0.00000000000000E+00   0.00000000000000E+00   0.00000000000000E+00
      1.91178317563945E-17   4.00000000000000E-01   4.00000000000000E-01   0.00000000000000E+00   0.00000000000000E+00
      2.06185277327717E-11   8.72192695318854E-15   2.06272496597249E-11   1.88704050039284E-17   0.00000000000000E+00
      0.00000000000000E+00   0.00000000000000E+00   0.00000000000000E+00   0.00000000000000E+00   0.00000000000000E+00
      0.00000000000000E+00  -2.67837206412015E-17
      2.25000000000000E-01
      0.00000000000000E+00   0.00000000000000E+00   0.00000000000000E+00   0.00000000000000E+00  -1.69075446125914E-13
     -1.85844106327592E-11  -1.87534860788851E-11  -1.12706695200171E-17   9.00000000000000E-02   9.00000000000000E-02
      0.00000000000000E+00   0.00000000000000E+00   0.00000000000000E+00   0.00000000000000E+00   0.00000000000000E+00
      2.08222499463795E-17   4.00000000000000E-01   4.00000000000000E-01   0.00000000000000E+00   0.00000000000000E+00
      1.87448104047887E-11   8.67567409635486E-15   1.87534860788851E-11   1.88064042868646E-17   0.00000000000000E+00
      0.00000000000000E+00   0.00000000000000E+00   0.00000000000000E+00   0.00000000000000E+00   0.00000000000000E+00
      0.00000000000000E+00  -2.83579847132270E-17
      2.40000000000000E-01
      0.00000000000000E+00   0.00000000000000E+00   0.00000000000000E+00   0.00000000000000E+00  -1.70911920029190E-13
     -1.68259006061874E-11  -1.69968125262166E-11  -1.13367608266080E-17   9.60000000000000E-02   9.60000000000000E-02
      0.00000000000000E+00   0.00000000000000E+00   0.00000000000000E+00   0.00000000000000E+00   0.00000000000000E+00
      2.25266387027993E-17   4.00000000000000E-01   4.00000000000000E-01   0.00000000000000E+00   0.00000000000000E+00
      1.69881830814797E-11   8.62944473688316E-15   1.69968125262166E-11   1.87424003412309E-17   0.00000000000000E+00
      0.00000000000000E+00   0.00000000000000E+00   0.00000000000000E+00   0.00000000000000E+00   0.00000000000000E+00
      0.00000000000000E+00  -2.99322782174222E-17
      2.55000000000000E-01
      0.00000000000000E+00   0.00000000000000E+00   0.00000000000000E+00   0.00000000000000E+00  -1.72754839562381E-13
     -1.51820559912863E-11  -1.53548108308487E-11  -1.14027919494165E-17   1.02000000000000E-01   1.02000000000000E-01
      0.00000000000000E+00   0.00000000000000E+00   0.00000000000000E+00   0.00000000000000E+00   0.00000000000000E+00
      2.42309990231076E-17   4.00000000000000E-01   4.00000000000000E-01   0.00000000000000E+00   0.00000000000000E+00
      1.53462275917208E-11   8.58323912788278E-15   1.53548108308487E-11   1.86783930830882E-17   0.00000000000000E+00
      0.00000000000000E+00   0.00000000000000E+00   0.00000000000000E+00   0.00000000000000E+00   0.00000000000000E+00
      0.00000000000000E+00  -3.15066001567793E-17
      2.70000000000000E-01
      0.00000000000000E+00   0.00000000000000E+00   0.00000000000000E+00   0.00000000000000E+00  -1.74604102940479E-13
     -1.36508176094383E-11  -1.38254217123788E-11  -1.14687647338893E-17   1.08000000000000E-01   1.08000000000000E-01
      0.00000000000000E+00   0.00000000000000E+00   0.00000000000000E+00   0.00000000000000E+00   0.00000000000000E+00
      2.59353318720389E-17   4.00000000000000E-01   4.00000000000000E-01   0.00000000000000E+00   0.00000000000000E+00
      1.38168846547500E-11   8.53705762884940E-15   1.38254217123788E-11   1.86143824287855E-17   0.00000000000000E+00
      0.00000000000000E+00   0.00000000000000E+00   0.00000000000000E+00   0.00000000000000E+00   0.00000000000000E+00
      0.00000000000000E+00  -3.30809495669352E-17
      2.85000000000000E-01
      0.00000000000000E+00   0.00000000000000E+00   0.00000000000000E+00   0.00000000000000E+00  -1.76459609654918E-13
     -1.22293703370384E-11  -1.24058299466934E-11  -1.15346809627344E-17   1.14000000000000E-01   1.14000000000000E-01
      0.00000000000000E+00   0.00000000000000E+00   0.00000000000000E+00   0.00000000000000E+00   0.00000000000000E+00
      2.76396381829180E-17   4.00000000000000E-01   4.00000000000000E-01   0.00000000000000E+00   0.00000000000000E+00
      1.23973390461466E-11   8.49090054680589E-15   1.24058299466934E-11   1.85503682946884E-17   0.00000000000000E+00
      0.00000000000000E+00   0.00000000000000E+00   0.00000000000000E+00   0.00000000000000E+00   0.00000000000000E+00
      0.00000000000000E+00  -3.46553255148720E-17
      3.00000000000000E-01
      0.00000000000000E+00   0.00000000000000E+00   0.00000000000000E+00   0.00000000000000E+00  -1.78321260485720E-13
     -1.09131718743687E-11  -1.10914931348544E-11  -1.16005423581757E-17   1.20000000000000E-01   1.20000000000000E-01
      0.00000000000000E+00   0.00000000000000E+00   0.00000000000000E+00   0.00000000000000E+00   0.00000000000000E+00
      2.93439188589162E-17   4.00000000000000E-01   4.00000000000000E-01   0.00000000000000E+00   0.00000000000000E+00
      1.10830483666496E-11   8.44476820484543E-15   1.10914931348544E-11   1.84863505969276E-17   0.00000000000000E+00
      0.00000000000000E+00   0.00000000000000E+00   0.00000000000000E+00   0.00000000000000E+00   0.00000000000000E+00
      0.00000000000000E+00  -3.62297270976682E-17
      3.15000000000000E-01
      0.00000000000000E+00   0.00000000000000E+00   0.00000000000000E+00   0.00000000000000E+00  -1.80188957511846E-13
     -9.70092849172703E-12  -9.88111744923888E-12  -1.16663505841183E-17   1.26000000000000E-01   1.26000000000000E-01
      0.00000000000000E+00   0.00000000000000E+00   0.00000000000000E+00   0.00000000000000E+00   0.00000000000000E+00
      3.10481747741699E-17   4.00000000000000E-01   4.00000000000000E-01   0.00000000000000E+00   0.00000000000000E+00
      9.87271878830579E-12   8.39866093308965E-15   9.88111744923888E-12   1.84223292513429E-17   0.00000000000000E+00
      0.00000000000000E+00   0.00000000000000E+00   0.00000000000000E+00   0.00000000000000E+00   0.00000000000000E+00
      0.00000000000000E+00  -3.78041534413945E-17
      3.30000000000000E-01
      0.00000000000000E+00   0.00000000000000E+00   0.00000000000000E+00   0.00000000000000E+00  -1.82062604119046E-13
     -8.58825572540109E-12  -8.77031832952014E-12  -1.17321072482486E-17   1.32000000000000E-01   1.32000000000000E-01
      0.00000000000000E+00   0.00000000000000E+00   0.00000000000000E+00   0.00000000000000E+00   0.00000000000000E+00
      3.27524067750167E-17   4.00000000000000E-01   4.00000000000000E-01   0.00000000000000E+00   0.00000000000000E+00
      8.76196575045584E-12   8.35257906429395E-15   8.77031832952013E-12   1.83583041731089E-17   0.00000000000000E+00
      0.00000000000000E+00   0.00000000000000E+00   0.00000000000000E+00   0.00000000000000E+00   0.00000000000000E+00
      0.00000000000000E+00  -3.93786036998770E-17
      3.45000000000000E-01
      0.00000000000000E+00   0.00000000000000E+00   0.00000000000000E+00   0.00000000000000E+00  -1.83942105006315E-13
     -7.57106787542673E-12  -7.75500998043305E-12  -1.17978139040478E-17   1.38000000000000E-01   1.38000000000000E-01
      0.00000000000000E+00   0.00000000000000E+00   0.00000000000000E+00   0.00000000000000E+00   0.00000000000000E+00
      3.44566156810451E-17   4.00000000000000E-01   4.00000000000000E-01   0.00000000000000E+00   0.00000000000000E+00
      7.74670345748453E-12   8.30652294850692E-15   7.75500998043304E-12   1.82942752766604E-17   0.00000000000000E+00
      0.00000000000000E+00   0.00000000000000E+00   0.00000000000000E+00   0.00000000000000E+00   0.00000000000000E+00
      0.00000000000000E+00  -4.09530770536578E-17
      3.60000000000000E-01
      0.00000000000000E+00   0.00000000000000E+00   0.00000000000000E+00   0.00000000000000E+00  -1.85827366190424E-13
     -6.64539900439176E-12  -6.83122637058219E-12  -1.18634720527356E-17   1.44000000000000E-01   1.44000000000000E-01
      0.00000000000000E+00   0.00000000000000E+00   0.00000000000000E+00   0.00000000000000E+00   0.00000000000000E+00
      3.61608022861517E-17   4.00000000000000E-01   4.00000000000000E-01   0.00000000000000E+00   0.00000000000000E+00
      6.82296587765088E-12   8.26049293129877E-15   6.83122637058218E-12   1.82302424755259E-17   0.00000000000000E+00
      0.00000000000000E+00   0.00000000000000E+00   0.00000000000000E+00   0.00000000000000E+00   0.00000000000000E+00
      0.00000000000000E+00  -4.25275727089420E-17
      3.75000000000000E-01
      0.00000000000000E+00   0.00000000000000E+00   0.00000000000000E+00   0.00000000000000E+00  -1.87718295008794E-13
     -5.80699009538206E-12  -5.99470839039086E-12  -1.19290831451441E-17   1.50000000000000E-01   1.50000000000000E-01
      0.00000000000000E+00   0.00000000000000E+00   0.00000000000000E+00   0.00000000000000E+00   0.00000000000000E+00
      3.78649673595619E-17   4.00000000000000E-01   4.00000000000000E-01   0.00000000000000E+00   0.00000000000000E+00
      5.98649390103199E-12   8.21448935886417E-15   5.99470839039086E-12   1.81662056821636E-17   0.00000000000000E+00
      0.00000000000000E+00   0.00000000000000E+00   0.00000000000000E+00   0.00000000000000E+00   0.00000000000000E+00
      0.00000000000000E+00  -4.41020898965814E-17
      3.90000000000000E-01
      0.00000000000000E+00   0.00000000000000E+00   0.00000000000000E+00   0.00000000000000E+00  -1.89614800120836E-13
     -5.05120677971186E-12  -5.24082157983270E-12  -1.19946485835228E-17   1.56000000000000E-01   1.56000000000000E-01
      0.00000000000000E+00   0.00000000000000E+00   0.00000000000000E+00   0.00000000000000E+00   0.00000000000000E+00
      3.95691116468069E-17   4.00000000000000E-01   4.00000000000000E-01   0.00000000000000E+00   0.00000000000000E+00
      5.23265306723420E-12   8.16851259850144E-15   5.24082157983270E-12   1.81021648078169E-17   0.00000000000000E+00
      0.00000000000000E+00   0.00000000000000E+00   0.00000000000000E+00   0.00000000000000E+00   0.00000000000000E+00
      0.00000000000000E+00  -4.56766278711010E-17
      4.05000000000000E-01
      0.00000000000000E+00   0.00000000000000E+00   0.00000000000000E+00   0.00000000000000E+00  -1.91516791507867E-13
     -4.37367282093989E-12  -4.56518961244775E-12  -1.20601697232764E-17   1.62000000000000E-01   1.62000000000000E-01
      0.00000000000000E+00   0.00000000000000E+00   0.00000000000000E+00   0.00000000000000E+00   0.00000000000000E+00
      4.12732358706528E-17   4.00000000000000E-01   4.00000000000000E-01   0.00000000000000E+00   0.00000000000000E+00
      4.55706704944264E-12   8.12256300511145E-15   4.56518961244775E-12   1.80381197623977E-17   0.00000000000000E+00
      0.00000000000000E+00   0.00000000000000E+00   0.00000000000000E+00   0.00000000000000E+00   0.00000000000000E+00
      0.00000000000000E+00  -4.72511859097741E-17
      4.20000000000000E-01
      0.00000000000000E+00   0.00000000000000E+00   0.00000000000000E+00   0.00000000000000E+00  -1.93424180471581E-13
     -3.76922792249969E-12  -3.96265210297127E-12  -1.21256478746415E-17   1.68000000000000E-01   1.68000000000000E-01
      0.00000000000000E+00   0.00000000000000E+00   0.00000000000000E+00   0.00000000000000E+00   0.00000000000000E+00
      4.29773407320183E-17   4.00000000000000E-01   4.00000000000000E-01   0.00000000000000E+00   0.00000000000000E+00
      3.95457546200702E-12   8.07664096425118E-15   3.96265210297127E-12   1.79740704543292E-17   0.00000000000000E+00
      0.00000000000000E+00   0.00000000000000E+00   0.00000000000000E+00   0.00000000000000E+00   0.00000000000000E+00
      0.00000000000000E+00  -4.88257633117060E-17
      4.35000000000000E-01
      0.00000000000000E+00   0.00000000000000E+00   0.00000000000000E+00   0.00000000000000E+00  -1.95336879631332E-13
     -3.23266662308908E-12  -3.42800350272042E-12  -1.21910843042998E-17   1.74000000000000E-01   1.74000000000000E-01
      0.00000000000000E+00   0.00000000000000E+00   0.00000000000000E+00   0.00000000000000E+00   0.00000000000000E+00
      4.46814269108332E-17   4.00000000000000E-01   4.00000000000000E-01   0.00000000000000E+00   0.00000000000000E+00
      3.41997275587922E-12   8.03074684119215E-15   3.42800350272042E-12   1.79100167904448E-17   0.00000000000000E+00
      0.00000000000000E+00   0.00000000000000E+00   0.00000000000000E+00   0.00000000000000E+00   0.00000000000000E+00
      0.00000000000000E+00  -5.04003593969781E-17
      4.50000000000000E-01
      0.00000000000000E+00   0.00000000000000E+00   0.00000000000000E+00   0.00000000000000E+00  -1.97254802920202E-13
     -2.75916736052969E-12  -2.95642216344989E-12  -1.22564802369324E-17   1.80000000000000E-01   1.80000000000000E-01
      0.00000000000000E+00   0.00000000000000E+00   0.00000000000000E+00   0.00000000000000E+00   0.00000000000000E+00
      4.63854950668695E-17   4.00000000000000E-01   4.00000000000000E-01   0.00000000000000E+00   0.00000000000000E+00
      2.94843728242680E-12   7.98488102309033E-15   2.95642216344989E-12   1.78459586758838E-17   0.00000000000000E+00
      0.00000000000000E+00   0.00000000000000E+00   0.00000000000000E+00   0.00000000000000E+00   0.00000000000000E+00
      0.00000000000000E+00  -5.19749735058209E-17
      4.65000000000000E-01
      0.00000000000000E+00   0.00000000000000E+00   0.00000000000000E+00   0.00000000000000E+00  -1.99177865579915E-13
     -2.34378963963212E-12  -2.54296750521204E-12  -1.23218368567177E-17   1.86000000000000E-01   1.86000000000000E-01
      0.00000000000000E+00   0.00000000000000E+00   0.00000000000000E+00   0.00000000000000E+00   0.00000000000000E+00
      4.80895458405546E-17   4.00000000000000E-01   4.00000000000000E-01   0.00000000000000E+00   0.00000000000000E+00
      2.53502846131110E-12   7.93904390093496E-15   2.54296750521204E-12   1.77818960139634E-17   0.00000000000000E+00
      0.00000000000000E+00   0.00000000000000E+00   0.00000000000000E+00   0.00000000000000E+00   0.00000000000000E+00
      0.00000000000000E+00  -5.35496049978004E-17
      4.80000000000000E-01
      0.00000000000000E+00   0.00000000000000E+00   0.00000000000000E+00   0.00000000000000E+00  -2.01105984154735E-13
     -1.98124240947293E-12  -2.18234839362767E-12  -1.23871553087746E-17   1.92000000000000E-01   1.92000000000000E-01
      0.00000000000000E+00   0.00000000000000E+00   0.00000000000000E+00   0.00000000000000E+00   0.00000000000000E+00
      4.97935798537516E-17   4.00000000000000E-01   4.00000000000000E-01   0.00000000000000E+00   0.00000000000000E+00
      2.17445515775562E-12   7.89323587205025E-15   2.18234839362767E-12   1.77178287060627E-17   0.00000000000000E+00
      0.00000000000000E+00   0.00000000000000E+00   0.00000000000000E+00   0.00000000000000E+00   0.00000000000000E+00
      0.00000000000000E+00  -5.51242532510397E-17
      4.95000000000000E-01
      0.00000000000000E+00   0.00000000000000E+00   0.00000000000000E+00   0.00000000000000E+00  -2.03039076484452E-13
     -1.66696502618652E-12  -1.87000410267097E-12  -1.24524367005509E-17   1.98000000000000E-01   1.98000000000000E-01
      0.00000000000000E+00   0.00000000000000E+00   0.00000000000000E+00   0.00000000000000E+00   0.00000000000000E+00
      5.14975977104926E-17   4.00000000000000E-01   4.00000000000000E-01   0.00000000000000E+00   0.00000000000000E+00
      1.86215664533176E-12   7.84745733921775E-15   1.87000410267097E-12   1.76537566515470E-17   0.00000000000000E+00
      0.00000000000000E+00   0.00000000000000E+00   0.00000000000000E+00   0.00000000000000E+00   0.00000000000000E+00
      0.00000000000000E+00  -5.66989176614887E-17
      5.10000000000000E-01
      0.00000000000000E+00   0.00000000000000E+00   0.00000000000000E+00   0.00000000000000E+00  -2.04977061696383E-13
     -1.39595396965851E-12  -1.60093103135489E-12  -1.25176821031626E-17   2.04000000000000E-01   2.04000000000000E-01
      0.00000000000000E+00   0.00000000000000E+00   0.00000000000000E+00   0.00000000000000E+00   0.00000000000000E+00
      5.32015999977178E-17   4.00000000000000E-01   4.00000000000000E-01   0.00000000000000E+00   0.00000000000000E+00
      1.59312932264405E-12   7.80170871084586E-15   1.60093103135489E-12   1.75896797476285E-17   0.00000000000000E+00
      0.00000000000000E+00   0.00000000000000E+00   0.00000000000000E+00   0.00000000000000E+00   0.00000000000000E+00
      0.00000000000000E+00  -5.82735976421837E-17
      5.25000000000000E-01
      0.00000000000000E+00   0.00000000000000E+00   0.00000000000000E+00   0.00000000000000E+00  -2.06919860196639E-13
     -1.16371931165221E-12  -1.37063917184885E-12  -1.25828925526825E-17   2.10000000000000E-01   2.10000000000000E-01
      0.00000000000000E+00   0.00000000000000E+00   0.00000000000000E+00   0.00000000000000E+00   0.00000000000000E+00
      5.49055872859585E-17   4.00000000000000E-01   4.00000000000000E-01   0.00000000000000E+00   0.00000000000000E+00
      1.36288318144324E-12   7.75599040561692E-15   1.37063917184885E-12   1.75255978892913E-17   0.00000000000000E+00
      0.00000000000000E+00   0.00000000000000E+00   0.00000000000000E+00   0.00000000000000E+00   0.00000000000000E+00
      0.00000000000000E+00  -5.98482926225673E-17
      5.40000000000000E-01
      0.00000000000000E+00   0.00000000000000E+00   0.00000000000000E+00   0.00000000000000E+00  -2.08867393660579E-13
     -9.65910124398969E-13  -1.17477751805955E-12  -1.26480690513815E-17   2.16000000000000E-01   2.16000000000000E-01
      0.00000000000000E+00   0.00000000000000E+00   0.00000000000000E+00   0.00000000000000E+00   0.00000000000000E+00
      5.66095601300148E-17   4.00000000000000E-01   4.00000000000000E-01   0.00000000000000E+00   0.00000000000000E+00
      1.16706721520899E-12   7.71030285056065E-15   1.17477751805955E-12   1.74615109691778E-17   0.00000000000000E+00
      0.00000000000000E+00   0.00000000000000E+00   0.00000000000000E+00   0.00000000000000E+00   0.00000000000000E+00
      0.00000000000000E+00  -6.14230020478110E-17
      5.55000000000000E-01
      0.00000000000000E+00   0.00000000000000E+00   0.00000000000000E+00   0.00000000000000E+00  -2.10819585022574E-13