DF-ISE text

Info {
  version   = 1.0
  type      = xyplot
  datasets  = [
    "time"
    "source OuterVoltage" "source InnerVoltage" "source QuasiFermiPotential" "source DisplacementCurrent" "source eCurrent"
    "source hCurrent" "source TotalCurrent" "source Charge" "topGate OuterVoltage" "topGate InnerVoltage"
    "topGate QuasiFermiPotential" "topGate DisplacementCurrent" "topGate eCurrent" "topGate hCurrent" "topGate TotalCurrent"
    "topGate Charge" "drain OuterVoltage" "drain InnerVoltage" "drain QuasiFermiPotential" "drain DisplacementCurrent"
    "drain eCurrent" "drain hCurrent" "drain TotalCurrent" "drain Charge" "bottomGate OuterVoltage"
    "bottomGate InnerVoltage" "bottomGate QuasiFermiPotential" "bottomGate DisplacementCurrent" "bottomGate eCurrent" "bottomGate hCurrent"
    "bottomGate TotalCurrent" "bottomGate Charge" ]
  functions = [
    Time
    OuterVoltage InnerVoltage QuasiFermiPotential DisplacementCurrent eCurrent
    hCurrent TotalCurrent Charge OuterVoltage InnerVoltage
    QuasiFermiPotential DisplacementCurrent eCurrent hCurrent TotalCurrent
    Charge OuterVoltage InnerVoltage QuasiFermiPotential DisplacementCurrent
    eCurrent hCurrent TotalCurrent Charge OuterVoltage
    InnerVoltage QuasiFermiPotential DisplacementCurrent eCurrent hCurrent
    TotalCurrent Charge ]
}

Data {
      0.00000000000000E+00
      0.00000000000000E+00   0.00000000000000E+00   0.00000000000000E+00   0.00000000000000E+00  -1.19787578547248E-23
     -3.30245565327466E-22  -3.42224323182191E-22  -1.02704084636161E-17   0.00000000000000E+00   0.00000000000000E+00
      0.00000000000000E+00   0.00000000000000E+00   0.00000000000000E+00   0.00000000000000E+00   0.00000000000000E+00
     -4.44919151528624E-19   0.00000000000000E+00   0.00000000000000E+00   0.00000000000000E+00   0.00000000000000E+00
      1.19791835565468E-23   3.30245139625644E-22   3.42224323182191E-22   1.11602467666733E-17   0.00000000000000E+00
      0.00000000000000E+00   0.00000000000000E+00   0.00000000000000E+00   0.00000000000000E+00   0.00000000000000E+00
      0.00000000000000E+00  -4.44919151528627E-19
      0.00000000000000E+00
      0.00000000000000E+00   0.00000000000000E+00   0.00000000000000E+00   0.00000000000000E+00   5.75901819938693E-23
     -1.49653054247398E-21  -1.43894036048011E-21  -1.02704078662457E-17   0.00000000000000E+00   0.00000000000000E+00
      0.00000000000000E+00   0.00000000000000E+00   0.00000000000000E+00   0.00000000000000E+00   0.00000000000000E+00
     -4.44919192211885E-19   0.00000000000000E+00   0.00000000000000E+00   0.00000000000000E+00   0.00000000000000E+00
     -7.13305394126643E-24   1.44607341442138E-21   1.43894036048011E-21   1.11602462506694E-17   0.00000000000000E+00
      0.00000000000000E+00   0.00000000000000E+00   0.00000000000000E+00   0.00000000000000E+00   0.00000000000000E+00
      0.00000000000000E+00  -4.44919192211887E-19
      5.00000000000000E-02
      0.00000000000000E+00   0.00000000000000E+00   0.00000000000000E+00   0.00000000000000E+00  -7.66898172421687E-14
     -1.61722811948714E-10  -1.61799501765956E-10  -1.02704176632073E-17   0.00000000000000E+00   0.00000000000000E+00
      0.00000000000000E+00   0.00000000000000E+00   0.00000000000000E+00   0.00000000000000E+00   0.00000000000000E+00
     -6.65006111802358E-19   2.00000000000000E-02   2.00000000000000E-02   0.00000000000000E+00   0.00000000000000E+00
      1.61797464312112E-10   2.03745384371178E-15   1.61799501765956E-10   1.16004298868112E-17   0.00000000000000E+00
      0.00000000000000E+00   0.00000000000000E+00   0.00000000000000E+00   0.00000000000000E+00   0.00000000000000E+00
      0.00000000000000E+00  -6.65006111801461E-19
      1.09166666666667E-01
      0.00000000000000E+00   0.00000000000000E+00   0.00000000000000E+00   0.00000000000000E+00  -1.16076372635464E-13
     -4.40741122587001E-10  -4.40857198959636E-10  -1.02704290690395E-17   0.00000000000000E+00   0.00000000000000E+00
      0.00000000000000E+00   0.00000000000000E+00   0.00000000000000E+00   0.00000000000000E+00   0.00000000000000E+00
     -9.23924971811633E-19   4.36666666666667E-02   4.36666666666667E-02   0.00000000000000E+00   0.00000000000000E+00
      4.40853857601441E-10   3.34135819543043E-15   4.40857198959636E-10   1.21182790126578E-17   0.00000000000000E+00
      0.00000000000000E+00   0.00000000000000E+00   0.00000000000000E+00   0.00000000000000E+00   0.00000000000000E+00
      0.00000000000000E+00  -9.23924971806682E-19
      1.81810185185185E-01
      0.00000000000000E+00   0.00000000000000E+00   0.00000000000000E+00   0.00000000000000E+00  -1.33825485312582E-13
     -9.79149693355588E-10  -9.79283518840901E-10  -1.02704427350465E-17   0.00000000000000E+00   0.00000000000000E+00
      0.00000000000000E+00   0.00000000000000E+00   0.00000000000000E+00   0.00000000000000E+00   0.00000000000000E+00
     -1.24005683654944E-18   7.27240740740741E-02   7.27240740740741E-02   0.00000000000000E+00   0.00000000000000E+00
      9.79279271956488E-10   4.24688441269314E-15   9.79283518840900E-10   1.27505564081224E-17   0.00000000000000E+00
      0.00000000000000E+00   0.00000000000000E+00   0.00000000000000E+00   0.00000000000000E+00   0.00000000000000E+00
      0.00000000000000E+00  -1.24005683652649E-18
      2.71000282921811E-01
      0.00000000000000E+00   0.00000000000000E+00   0.00000000000000E+00   0.00000000000000E+00  -1.40221245300422E-13
     -2.20329697134136E-09  -2.20343719258666E-09  -1.02704586769545E-17   0.00000000000000E+00   0.00000000000000E+00
      0.00000000000000E+00   0.00000000000000E+00   0.00000000000000E+00   0.00000000000000E+00   0.00000000000000E+00
     -1.62619837550222E-18   1.08400113168724E-01   1.08400113168724E-01   0.00000000000000E+00   0.00000000000000E+00
      2.20343123541945E-09   5.95716721182174E-15   2.20343719258666E-09   1.35228554278686E-17   0.00000000000000E+00
      0.00000000000000E+00   0.00000000000000E+00   0.00000000000000E+00   0.00000000000000E+00   0.00000000000000E+00
      0.00000000000000E+00  -1.62619837541183E-18
      3.80505902920668E-01
      0.00000000000000E+00   0.00000000000000E+00   0.00000000000000E+00   0.00000000000000E+00  -1.41976824917817E-13
     -7.20938717218941E-09  -7.20952914901432E-09  -1.02704737789128E-17   0.00000000000000E+00   0.00000000000000E+00
      0.00000000000000E+00   0.00000000000000E+00   0.00000000000000E+00   0.00000000000000E+00   0.00000000000000E+00
     -2.09816426274133E-18   1.52202361168267E-01   1.52202361168267E-01   0.00000000000000E+00   0.00000000000000E+00
      7.20952310253224E-09   6.04648208195870E-15   7.20952914901432E-09   1.44668023040187E-17   0.00000000000000E+00
      0.00000000000000E+00   0.00000000000000E+00   0.00000000000000E+00   0.00000000000000E+00   0.00000000000000E+00
      0.00000000000000E+00  -2.09816426236460E-18
      5.12521011474845E-01
      0.00000000000000E+00   0.00000000000000E+00   0.00000000000000E+00   0.00000000000000E+00  -1.42323347874958E-13
     -4.99144084357627E-08  -4.99145507591106E-08  -1.02704480446459E-17   0.00000000000000E+00   0.00000000000000E+00
      0.00000000000000E+00   0.00000000000000E+00   0.00000000000000E+00   0.00000000000000E+00   0.00000000000000E+00
     -2.66550688916133E-18   2.05008404589938E-01   2.05008404589938E-01   0.00000000000000E+00   0.00000000000000E+00
      4.99145633659691E-08  -1.26068584824095E-14   4.99145507591106E-08   1.56014618194691E-17   0.00000000000000E+00
      0.00000000000000E+00   0.00000000000000E+00   0.00000000000000E+00   0.00000000000000E+00   0.00000000000000E+00
      0.00000000000000E+00  -2.66550688566185E-18
      6.68738889930622E-01
      0.00000000000000E+00   0.00000000000000E+00   0.00000000000000E+00   0.00000000000000E+00  -1.42385923925331E-13
     -3.54026051307873E-07  -3.54026193693797E-07  -1.02701166622507E-17   0.00000000000000E+00   0.00000000000000E+00
      0.00000000000000E+00   0.00000000000000E+00   0.00000000000000E+00   0.00000000000000E+00   0.00000000000000E+00
     -3.33887944401496E-18   2.67495555972249E-01   2.67495555972249E-01   0.00000000000000E+00   0.00000000000000E+00
      3.54026595233168E-07  -4.01539370680478E-13   3.54026193693797E-07   1.69478755220353E-17   0.00000000000000E+00
      0.00000000000000E+00   0.00000000000000E+00   0.00000000000000E+00   0.00000000000000E+00   0.00000000000000E+00
      0.00000000000000E+00  -3.33887941576965E-18
      8.50125204359829E-01
      0.00000000000000E+00   0.00000000000000E+00   0.00000000000000E+00   0.00000000000000E+00  -1.42442788457945E-13
     -1.39216651511567E-06  -1.39216665755846E-06  -1.02689192459025E-17   0.00000000000000E+00   0.00000000000000E+00
      0.00000000000000E+00   0.00000000000000E+00   0.00000000000000E+00   0.00000000000000E+00   0.00000000000000E+00
     -4.12976907982535E-18   3.40050081743932E-01   3.40050081743932E-01   0.00000000000000E+00   0.00000000000000E+00
      1.39217414798745E-06  -7.49042898693873E-12   1.39216665755846E-06   1.85284573297593E-17   0.00000000000000E+00
      0.00000000000000E+00   0.00000000000000E+00   0.00000000000000E+00   0.00000000000000E+00   0.00000000000000E+00
      0.00000000000000E+00  -4.12976900403139E-18
      1.00000000000000E+00
      0.00000000000000E+00   0.00000000000000E+00   0.00000000000000E+00   0.00000000000000E+00  -1.42517864008127E-13
     -2.88104530359646E-06  -2.88104544611432E-06  -1.02671810006884E-17   0.00000000000000E+00   0.00000000000000E+00
      0.00000000000000E+00   0.00000000000000E+00   0.00000000000000E+00   0.00000000000000E+00   0.00000000000000E+00
     -4.79180416367664E-18   4.00000000000000E-01   4.00000000000000E-01   0.00000000000000E+00   0.00000000000000E+00
      2.88105274629139E-06  -7.30017706586702E-12   2.88104544611432E-06   1.98507892848857E-17   0.00000000000000E+00
      0.00000000000000E+00   0.00000000000000E+00   0.00000000000000E+00   0.00000000000000E+00   0.00000000000000E+00
      0.00000000000000E+00  -4.79180412052064E-18
}
